                         Program Version 5.0.3 -  RELEASE  -
|  1> ! HF STO-3G
|  2> %shark
|  3> Printlevel 2
|  4> end
|  5> * xyz 0 1
|  6>  C 0.0000 0.0000 0.0000
|  7>  H 0.0000 0.0000 1.0890
|  8>  H 1.0267 0.0000 -0.3630
|  9>  H -0.5134 -0.8892 -0.3630
| 10>  H -0.5134 0.8892 -0.3630
| 11> *
| 12>
| 13>                          ****END OF INPUT****

CARTESIAN COORDINATES (ANGSTROEM)
---------------------------------
  C      0.000000    0.000000    0.000000
  H      0.000000    0.000000    1.089000
  H      1.026700    0.000000   -0.363000
  H     -0.513400   -0.889200   -0.363000
  H     -0.513400    0.889200   -0.363000

 Total Charge           Charge          ....    0
 Multiplicity           Mult            ....    1
 Number of Electrons    NEL             ....   10
 Basis Dimension        Dim             ....    9

ORBITAL ENERGIES
----------------

  NO   OCC          E(Eh)            E(eV)
   0   2.0000     -11.030140      -300.1454
   1   2.0000      -0.908963       -24.7341
   2   2.0000      -0.518120       -14.0988
   3   2.0000      -0.518106       -14.0984
   4   2.0000      -0.518097       -14.0981
   5   0.0000       0.713874        19.4255
   6   0.0000       0.713902        19.4263
   7   0.0000       0.713939        19.4273
   8   0.0000       0.751992        20.4628

MULLIKEN ATOMIC CHARGES
-----------------------
   0 C :   -0.256046
   1 H :    0.064014
   2 H :    0.064018
   3 H :    0.064007
   4 H :    0.064007
Sum of atomic charges:   -0.0000000

LOEWDIN ATOMIC CHARGES
----------------------
   0 C :   -0.139625
   1 H :    0.034907
   2 H :    0.034910
   3 H :    0.034904
   4 H :    0.034904

  Mayer bond orders larger than 0.100000
B(  0-C ,  1-H ) :   0.9912 B(  0-C ,  2-H ) :   0.9912 B(  0-C ,  3-H ) :   0.9912
B(  0-C ,  4-H ) :   0.9912

FINAL SINGLE POINT ENERGY       -39.726742536495

DIPOLE MOMENT
-------------
                                X             Y             Z
Electronic contribution:      0.00007       0.00000       0.00000
Nuclear contribution   :     -0.00007       0.00000      -0.00000
                        -----------------------------------------
Total Dipole Moment    :      0.00000       0.00000       0.00000
                        -----------------------------------------
Magnitude (a.u.)       :      0.00000
Magnitude (Debye)      :      0.00001

Rotational constants in cm-1:     5.288175     5.288073     5.287932
Rotational constants in MHz : 158535.503542 158532.454377 158528.198760

                             ****ORCA TERMINATED NORMALLY****
TOTAL RUN TIME: 0 days 0 hours 0 minutes 0 seconds 308 msec
